 Gaussian 09, Revision C.01,
 Gaussian 09:  AM64L-G09RevC.01 23-Sep-2011

 ----------------------------------------------------------------------
 #P B3PW91/GenECP SCFCon=7 SCFCyc=250 GFInput GFOldPrint Pseudo=Read Fr
 eq Integral=(Grid=UltraFine) Pop=Regular IOp(1/33=0,2/11=1,3/27=8,6/7=
 3)
 ----------------------------------------------------------------------

 (Enter /opt/qcapps/g09/l101.exe)
 ---------
 Frequency
 ---------
 Charge =  0 Multiplicity = 1

                         Standard orientation:
 ---------------------------------------------------------------------
 Center     Atomic      Atomic             Coordinates (Angstroms)
 Number     Number       Type             X           Y           Z
 ---------------------------------------------------------------------
      1         22           0       -1.564845    0.000000    1.351425
      2         22           0        1.564845    0.000000    1.351425
      3         22           0        0.000000    1.597333   -0.981597
      4         22           0        0.000000   -1.597333   -0.981597
      5          8           0        0.000000    0.000000    2.287505
      6          8           0        1.475720   -1.372257    0.339461
      7          8           0        1.475720    1.372257    0.339461
      8          8           0       -1.475720   -1.372257    0.339461
      9          8           0       -1.475720    1.372257    0.339461
     10          8           0        0.000000    0.000000   -1.882417
     11          8           0        0.000000    2.927626   -1.898493
     12          8           0        0.000000   -2.927626   -1.898493
 ---------------------------------------------------------------------

 SCF Done:  E(RB3PW91) =  -835.654120392     A.U. after   16 cycles

 The electronic state is 1-A1.
 Alpha  occ. eigenvalues --  -19.18239 -19.16778 -19.16777 -19.16777 -19.16775
 Alpha  occ. eigenvalues --  -19.11011 -19.09546 -19.09545  -2.54692  -2.54651
 Alpha  occ. eigenvalues --   -2.47581  -2.47549  -1.58682  -1.58500  -1.58490
 Alpha  occ. eigenvalues --   -1.58437  -1.58372  -1.57716  -1.51944  -1.51637
 Alpha  occ. eigenvalues --   -1.51126  -1.50888  -1.50849  -1.50731  -0.96704
 Alpha  occ. eigenvalues --   -0.94762  -0.94507  -0.94065  -0.93576  -0.89406
 Alpha  occ. eigenvalues --   -0.84565  -0.84409  -0.44907  -0.44220  -0.44219
 Alpha  occ. eigenvalues --   -0.43322  -0.42323  -0.42036  -0.41406  -0.40575
 Alpha  occ. eigenvalues --   -0.39397  -0.38783  -0.38746  -0.37985  -0.36837
 Alpha  occ. eigenvalues --   -0.36232  -0.35006  -0.34607  -0.34078  -0.32134
 Alpha  occ. eigenvalues --   -0.30841  -0.30465  -0.30000  -0.29874  -0.29768
 Alpha  occ. eigenvalues --   -0.26907
 Alpha virt. eigenvalues --   -0.15007  -0.13656  -0.12324  -0.10613  -0.10197
 Alpha virt. eigenvalues --   -0.09431  -0.07217  -0.07115  -0.05925  -0.04146
 Alpha virt. eigenvalues --   -0.03364  -0.02946  -0.02514  -0.02142  -0.02119

 Mulliken atomic charges:
              1
     1  Ti   1.378906
     2  Ti   1.378906
     3  Ti   1.134518
     4  Ti   1.134518
     5  O   -0.729797
     6  O   -0.670450
     7  O   -0.670450
     8  O   -0.670450
     9  O   -0.670450
    10  O   -0.733284
    11  O   -0.440982
    12  O   -0.440982
 Sum of Mulliken atomic charges =   0.00000

 Dipole moment (field-independent basis, Debye):
    X=              0.0000    Y=              0.0000    Z=             12.4996  Tot=             12.4996
 Quadrupole moment (field-independent basis, Debye-Ang):
   XX=            -79.2415   YY=           -135.3527   ZZ=           -104.2484
   XY=              0.0000   XZ=              0.0000   YZ=              0.0000

  Exact polarizability:  95.570   0.000 155.304   0.000   0.000 118.526
 Approx polarizability: 158.878   0.000 314.231   0.000   0.000 230.694

                     1                      2                      3
                    A2                     A1                     B1
 Frequencies --   134.2943               147.4520               148.8219
 Red. masses --    20.9529                22.9982                16.9085
 Frc consts  --     0.2226                 0.2946                 0.2206
 IR Inten    --     0.0000                 1.7499                10.7737

                     4                      5                      6
                    A2                     B2                     A1
 Frequencies --   149.1466               163.6571               169.0196
 Red. masses --    19.0912                16.3380                16.7406
 Frc consts  --     0.2502                 0.2578                 0.2818
 IR Inten    --     0.0000                 1.0573                 5.9177

                     7                      8                      9
                    B2                     B1                     A1
 Frequencies --   179.0327               204.5028               207.8952
 Red. masses --    24.0143                18.8662                26.0250
 Frc consts  --     0.4535                 0.4649                 0.6627
 IR Inten    --     4.3850                26.7860                12.0715

                    10                     11                     12
                    B1                     A2                     B2
 Frequencies --   225.4710               225.6533               239.3195
 Red. masses --    26.2297                18.8819                19.4381
 Frc consts  --     0.7856                 0.5665                 0.6559
 IR Inten    --    19.6585                 0.0000                 0.2688

                    13                     14                     15
                    B1                     A1                     B2
 Frequencies --   318.5984               327.0706               332.9805
 Red. masses --    18.7689                27.9850                17.1631
 Frc consts  --     1.1225                 1.7638                 1.1212
 IR Inten    --    11.3099                 4.9003                 8.7528

                    16                     17                     18
                    A1                     A2                     B2
 Frequencies --   334.3068               445.1387               457.8233
 Red. masses --    20.0636                21.0528                20.1521
 Frc consts  --     1.3211                 2.4578                 2.4887
 IR Inten    --     0.7214                 0.0000                 8.8598

                    19                     20                     21
                    B1                     A1                     A1
 Frequencies --   475.4689               482.6474               610.6259
 Red. masses --    19.8049                17.0623                21.2028
 Frc consts  --     2.6380                 2.3418                 4.6579
 IR Inten    --    93.9413                62.3182               108.0510

                    22                     23                     24
                    A1                     B2                     B1
 Frequencies --   641.0745               699.1314               699.4097
 Red. masses --    22.2663                18.8207                20.0394
 Frc consts  --     5.3916                 5.4201                 5.7756
 IR Inten    --    84.4227                20.4317               386.4801

                    25                     26                     27
                    A2                     B2                     B1
 Frequencies --   813.0941               922.2742               931.6420
 Red. masses --    20.6540                19.5463                17.6061
 Frc consts  --     8.0452                 9.7957                 9.0035
 IR Inten    --     0.0000              1131.9752               105.4736

                    28                     29                     30
                    A1                     B2                     A1
 Frequencies --   954.1403              1055.0583              1075.1685
 Red. masses --    18.3651                19.2671                19.5378
 Frc consts  --     9.8507                12.6363                13.3070
 IR Inten    --   393.5749               492.9588               151.6249

 - Thermochemistry -
 -------------------
 Temperature   298.150 Kelvin.  Pressure   1.00000 Atm.
 Atom     1 has atomic number 22 and mass  47.94795

 Molecular mass:   319.75110 amu.
 Principal axes and moments of inertia in atomic units:
                           1         2         3
     Eigenvalues --  3230.792643619.258404177.78201
           X            0.00000   0.00000   1.00000
           Y            1.00000   0.00000   0.00000
           Z            0.00000   1.00000   0.00000
 This molecule is an asymmetric top.
 Rotational symmetry number  2.
 Warning -- assumption of classical behavior for rotation
           may cause significant error
 Rotational temperatures (Kelvin)      0.02681     0.02393     0.02073
 Rotational constants (GHZ):           0.55861     0.49865     0.43199
 Zero-point vibrational energy      82362.4 (Joules/Mol)
                                   19.68509 (Kcal/Mol)
 Warning -- explicit consideration of  21 degrees of freedom as
           vibrations may cause significant error
 Vibrational temperatures:    193.22   212.15   214.12   214.59   235.47
          (Kelvin)            243.18   257.59   294.23   299.11   324.40
                              324.66   344.33   458.39   470.58   479.08
                              480.99   640.45   658.70   684.09   694.42
                              878.55   922.36  1005.89  1006.29  1169.86
                             1326.95  1340.42  1372.79  1517.99  1546.93

 Zero-point correction=                           0.031370 (Hartree/Particle)
 Thermal correction to Energy=                    0.044626
 Thermal correction to Enthalpy=                  0.045570
 Thermal correction to Gibbs Free Energy=        -0.007798
 Sum of electronic and zero-point Energies=           -835.622750
 Sum of electronic and thermal Energies=              -835.609494
 Sum of electronic and thermal Enthalpies=            -835.608550
 Sum of electronic and thermal Free Energies=         -835.661918

                     E (Thermal)             CV                S
                      KCal/Mol        Cal/Mol-Kelvin    Cal/Mol-Kelvin
 Total                   28.003             46.288            112.323
 Electronic               0.000              0.000              0.000
 Translational            0.889              2.981             43.183
 Rotational               0.889              2.981             30.880
 Vibrational             26.226             40.326             38.260
 Vibration     1          0.613              1.919              2.884
 Vibration     2          0.617              1.905              2.705
 Vibration     3          0.618              1.904              2.687
 Vibration     4          0.618              1.904              2.683
 Vibration     5          0.623              1.887              2.507
 Vibration     6          0.625              1.881              2.446
 Vibration     7          0.629              1.868              2.338
 Vibration     8          0.640              1.833              2.092
 Vibration     9          0.641              1.829              2.062
 Vibration    10          0.650              1.802              1.915
 Vibration    11          0.650              1.802              1.913
 Vibration    12          0.657              1.780              1.808
 Vibration    13          0.705              1.638              1.317
 Vibration    14          0.711              1.621              1.275
 Vibration    15          0.715              1.610              1.246
 Vibration    16          0.716              1.607              1.239
 Vibration    17          0.805              1.372              0.811
 Vibration    18          0.816              1.344              0.772
 Vibration    19          0.832              1.304              0.722
 Vibration    20          0.839              1.289              0.703
 Vibration    21          0.970              1.009              0.432

 Optimization completed.
    -- Stationary point found.
 Normal termination of Gaussian 09 at Wed Oct 26 12:07:32 2016.
