 Gaussian 09, Revision C.01,
 Gaussian 09:  AM64L-G09RevC.01 23-Sep-2011

 ----------------------------------------------------------------------
 #P B3PW91/GenECP SCFCon=7 SCFCyc=250 GFInput GFOldPrint Pseudo=Read Fr
 eq Integral=(Grid=UltraFine) Pop=Regular IOp(1/33=0,2/11=1,3/27=8,6/7=
 3)
 ----------------------------------------------------------------------

 (Enter /opt/qcapps/g09/l101.exe)
 ---------
 Frequency
 ---------
 Charge =  0 Multiplicity = 1

                         Standard orientation:
 ---------------------------------------------------------------------
 Center     Atomic      Atomic             Coordinates (Angstroms)
 Number     Number       Type             X           Y           Z
 ---------------------------------------------------------------------
      1         22           0       -0.017152    0.025587   -0.008929
      2          8           0       -1.707491    0.633365   -0.175526
      3          1           0       -2.514250    0.114096   -0.104985
      4          8           0        0.157765   -0.939215    1.500595
      5          1           0        0.671998   -0.732966    2.286504
      6          8           0        1.096307    1.436680    0.024835
      7          1           0        1.892291    1.570829   -0.498364
      8          8           0        0.395678   -1.076369   -1.374087
      9          1           0        0.789226   -1.950576   -1.293238
 ---------------------------------------------------------------------

 SCF Done:  E(RB3PW91) =  -361.764910546     A.U. after   14 cycles

 The electronic state is 1-A.
 Alpha  occ. eigenvalues --  -19.13905 -19.13721 -19.13638 -19.12642  -2.50084
 Alpha  occ. eigenvalues --   -1.53683  -1.53481  -1.53220  -0.97983  -0.97042
 Alpha  occ. eigenvalues --   -0.96887  -0.96051  -0.49477  -0.49201  -0.48759
 Alpha  occ. eigenvalues --   -0.48085  -0.36444  -0.36286  -0.35038  -0.34474
 Alpha  occ. eigenvalues --   -0.33634  -0.32347  -0.31556  -0.30357
 Alpha virt. eigenvalues --   -0.04999  -0.04187  -0.01860  -0.00878  -0.00109
 Alpha virt. eigenvalues --    0.00045   0.02032   0.02824   0.03073   0.04498
 Alpha virt. eigenvalues --    0.10434   0.11829   0.12795   0.13669   0.14411

 Mulliken atomic charges:
              1
     1  Ti   1.231936
     2  O   -0.659845
     3  H    0.345286
     4  O   -0.659895
     5  H    0.351716
     6  O   -0.654721
     7  H    0.351275
     8  O   -0.656941
     9  H    0.351188
 Sum of Mulliken atomic charges =   0.00000

 Dipole moment (field-independent basis, Debye):
    X=              1.6072    Y=             -1.7223    Z=              0.7208  Tot=              2.4635
 Quadrupole moment (field-independent basis, Debye-Ang):
   XX=            -31.0666   YY=            -39.6854   ZZ=            -38.0852
   XY=              1.8155   XZ=             -0.3982   YZ=              0.0802

  Exact polarizability:  48.444   0.435  44.936  -0.153  -0.016  44.302
 Approx polarizability:  70.558   0.429  67.618  -0.206  -0.124  65.345

                     1                      2                      3
                     A                      A                      A
 Frequencies --    76.9438               152.6937               169.5344
 Red. masses --     1.0938                 1.8904                 2.9204
 Frc consts  --     0.0038                 0.0260                 0.0495
 IR Inten    --   137.1199                29.6707                40.0235

                     4                      5                      6
                     A                      A                      A
 Frequencies --   182.9567               204.4913               213.7843
 Red. masses --     1.9190                 3.3804                 2.6997
 Frc consts  --     0.0378                 0.0833                 0.0727
 IR Inten    --    19.8606                21.7704                36.5487

                     7                      8                      9
                     A                      A                      A
 Frequencies --   242.7975               265.0142               305.0755
 Red. masses --     1.8578                 1.9354                 1.6079
 Frc consts  --     0.0645                 0.0801                 0.0882
 IR Inten    --    12.0885               108.6090               181.1854

                    10                     11                     12
                     A                      A                      A
 Frequencies --   488.8842               494.2157               511.3608
 Red. masses --     1.3996                 1.3569                 1.3067
 Frc consts  --     0.1971                 0.1953                 0.2013
 IR Inten    --   137.7787               172.8644               206.7450

                    13                     14                     15
                     A                      A                      A
 Frequencies --   528.0303               717.7873               782.0035
 Red. masses --     1.1880                 7.6601                 7.3984
 Frc consts  --     0.1951                 2.3253                 2.6657
 IR Inten    --   150.0472                 1.0567               191.1560

                    16                     17                     18
                     A                      A                      A
 Frequencies --   790.6546               811.7477              3922.2289
 Red. masses --     8.6072                 6.3054                 1.0666
 Frc consts  --     3.1702                 2.4479                 9.6676
 IR Inten    --   243.3238               216.9071               193.3081

                    19                     20                     21
                     A                      A                      A
 Frequencies --  3923.9753              3927.2102              3934.1185
 Red. masses --     1.0667                 1.0669                 1.0680
 Frc consts  --     9.6772                 9.6948                 9.7392
 IR Inten    --   217.9913               133.1730               103.6245

 - Thermochemistry -
 -------------------
 Temperature   298.150 Kelvin.  Pressure   1.00000 Atm.
 Atom     1 has atomic number 22 and mass  47.94795

 Molecular mass:   115.95891 amu.
 Principal axes and moments of inertia in atomic units:
                           1         2         3
     Eigenvalues --   544.80371 550.33543 567.09451
           X            0.88241   0.46975  -0.02631
           Y           -0.46976   0.88277   0.00624
           Z            0.02616   0.00685   0.99963
 This molecule is an asymmetric top.
 Rotational symmetry number  1.
 Warning -- assumption of classical behavior for rotation
           may cause significant error
 Rotational temperatures (Kelvin)      0.15898     0.15738     0.15273
 Rotational constants (GHZ):           3.31264     3.27935     3.18243
 Zero-point vibrational energy     135450.2 (Joules/Mol)
                                   32.37338 (Kcal/Mol)
 Warning -- explicit consideration of  13 degrees of freedom as
           vibrations may cause significant error
 Vibrational temperatures:    110.70   219.69   243.92   263.23   294.22
          (Kelvin)            307.59   349.33   381.30   438.94   703.39
                              711.07   735.73   759.72  1032.73  1125.13
                             1137.57  1167.92  5643.21  5645.72  5650.37
                             5660.31

 Zero-point correction=                           0.051590 (Hartree/Particle)
 Thermal correction to Energy=                    0.060735
 Thermal correction to Enthalpy=                  0.061679
 Thermal correction to Gibbs Free Energy=         0.018660
 Sum of electronic and zero-point Energies=           -361.713320
 Sum of electronic and thermal Energies=              -361.704175
 Sum of electronic and thermal Enthalpies=            -361.703231
 Sum of electronic and thermal Free Energies=         -361.746251

                     E (Thermal)             CV                S
                      KCal/Mol        Cal/Mol-Kelvin    Cal/Mol-Kelvin
 Total                   38.112             30.123             90.543
 Electronic               0.000              0.000              0.000
 Translational            0.889              2.981             40.159
 Rotational               0.889              2.981             26.633
 Vibrational             36.334             24.161             23.750
 Vibration     1          0.599              1.965              3.967
 Vibration     2          0.619              1.900              2.638
 Vibration     3          0.625              1.880              2.441
 Vibration     4          0.630              1.863              2.298
 Vibration     5          0.640              1.834              2.092
 Vibration     6          0.644              1.820              2.011
 Vibration     7          0.659              1.775              1.782
 Vibration     8          0.671              1.737              1.629
 Vibration     9          0.696              1.664              1.389
 Vibration    10          0.845              1.275              0.687
 Vibration    11          0.850              1.263              0.673
 Vibration    12          0.866              1.225              0.630
 Vibration    13          0.883              1.188              0.592

 Optimization completed.
    -- Stationary point found.
 Normal termination of Gaussian 09 at Wed Oct 26 17:43:08 2016.
