 Gaussian 09, Revision C.01,
 Gaussian 09:  AM64L-G09RevC.01 23-Sep-2011

 ----------------------------------------------------------------------
 #P B3PW91/GenECP SCFCon=7 SCFCyc=250 GFInput GFOldPrint Pseudo=Read Fr
 eq Integral=(Grid=UltraFine) Pop=Regular IOp(1/33=0,2/11=1,3/27=8,6/7=
 3)
 ----------------------------------------------------------------------

 (Enter /opt/qcapps/g09/l101.exe)
 ---------
 Frequency
 ---------
 Charge =  0 Multiplicity = 1

                         Standard orientation:
 ---------------------------------------------------------------------
 Center     Atomic      Atomic             Coordinates (Angstroms)
 Number     Number       Type             X           Y           Z
 ---------------------------------------------------------------------
      1         22           0       -0.300393   -0.004480   -0.357945
      2          8           0        0.520606    1.349481    0.284733
      3          8           0       -1.617416   -0.436694    0.485436
      4          8           0        1.532454   -0.778704    0.066800
      5          1           0        1.700012   -1.328176    0.840924
      6          1           0        1.423480    0.354081    0.338110
 ---------------------------------------------------------------------

 SCF Done:  E(RB3PW91) =  -285.213285210     A.U. after   14 cycles

 The electronic state is 1-A.
 Alpha  occ. eigenvalues --  -19.18008 -19.11040 -19.10566  -2.48357  -1.53017
 Alpha  occ. eigenvalues --   -1.52361  -1.51709  -1.03754  -0.88842  -0.85819
 Alpha  occ. eigenvalues --   -0.57046  -0.44785  -0.38417  -0.34905  -0.33863
 Alpha  occ. eigenvalues --   -0.32230  -0.30822  -0.30644  -0.27283
 Alpha virt. eigenvalues --   -0.09572  -0.07064  -0.05805  -0.01344   0.00218
 Alpha virt. eigenvalues --    0.01350   0.01797   0.03402   0.03706   0.05221
 Alpha virt. eigenvalues --    0.09925   0.10837   0.12076   0.12983   0.13920

 Mulliken atomic charges:
              1
     1  Ti   1.007866
     2  O   -0.633531
     3  O   -0.475432
     4  O   -0.710514
     5  H    0.370158
     6  H    0.441452
 Sum of Mulliken atomic charges =   0.00000

 Dipole moment (field-independent basis, Debye):
    X=              1.6460    Y=             -2.4866    Z=             -3.5205  Tot=              4.6137
 Quadrupole moment (field-independent basis, Debye-Ang):
   XX=            -37.3768   YY=            -35.3685   ZZ=            -27.1172
   XY=             -4.2265   XZ=              6.8237   YZ=             -2.6582

  Exact polarizability:  46.436   5.291  37.315  -0.890  -0.575  26.917
 Approx polarizability:  83.008  20.691  64.810  -8.980   2.968  48.096

 ******    1 imaginary frequencies (negative Signs) ******

                     1                      2                      3
                     A                      A                      A
 Frequencies -- -1211.7688               125.7196               297.7718
 Red. masses --     1.1205                 6.5620                16.2817
 Frc consts  --     0.9694                 0.0611                 0.8506
 IR Inten    --  1269.6790                45.0115                28.2982

                     4                      5                      6
                     A                      A                      A
 Frequencies --   427.0667               563.5702               610.3789
 Red. masses --    12.8811                 1.2490                 1.1965
 Frc consts  --     1.3842                 0.2337                 0.2626
 IR Inten    --   129.5710               154.7948                93.8460

                     7                      8                      9
                     A                      A                      A
 Frequencies --   704.8794               958.7818              1058.5907
 Red. masses --     3.9394                11.2585                17.0646
 Frc consts  --     1.1532                 6.0978                11.2668
 IR Inten    --   126.3645               257.9860               248.9799

                    10                     11                     12
                     A                      A                      A
 Frequencies --  1345.3613              1932.0121              3892.9328
 Red. masses --     1.0634                 1.0373                 1.0664
 Frc consts  --     1.1340                 2.2813                 9.5219
 IR Inten    --    67.5975                83.3695               116.4926

 - Thermochemistry -
 -------------------
 Temperature   298.150 Kelvin.  Pressure   1.00000 Atm.
 Atom     1 has atomic number 22 and mass  47.94795

 Molecular mass:    97.94834 amu.
 Principal axes and moments of inertia in atomic units:
                           1         2         3
     Eigenvalues --   198.97735 374.61691 488.07316
           X            0.99917  -0.03524   0.02028
           Y            0.03590   0.99880  -0.03320
           Z           -0.01909   0.03390   0.99924
 This molecule is an asymmetric top.
 Rotational symmetry number  1.
 Rotational temperatures (Kelvin)      0.43529     0.23121     0.17746
 Rotational constants (GHZ):           9.07008     4.81756     3.69769
    1 imaginary frequencies ignored.
 Zero-point vibrational energy      71279.9 (Joules/Mol)
                                   17.03630 (Kcal/Mol)
 Warning -- explicit consideration of   5 degrees of freedom as
           vibrations may cause significant error
 Vibrational temperatures:    180.88   428.43   614.45   810.85   878.20
          (Kelvin)           1014.16  1379.47  1523.07  1935.67  2779.73
                             5601.06

 Zero-point correction=                           0.027149 (Hartree/Particle)
 Thermal correction to Energy=                    0.031904
 Thermal correction to Enthalpy=                  0.032848
 Thermal correction to Gibbs Free Energy=        -0.001135
 Sum of electronic and zero-point Energies=           -285.186136
 Sum of electronic and thermal Energies=              -285.181381
 Sum of electronic and thermal Enthalpies=            -285.180437
 Sum of electronic and thermal Free Energies=         -285.214420

                     E (Thermal)             CV                S
                      KCal/Mol        Cal/Mol-Kelvin    Cal/Mol-Kelvin
 Total                   20.020             14.803             71.523
 Electronic               0.000              0.000              0.000
 Translational            0.889              2.981             39.656
 Rotational               0.889              2.981             25.101
 Vibrational             18.243              8.841              6.766
 Vibration     1          0.611              1.927              3.011
 Vibration     2          0.691              1.678              1.429
 Vibration     3          0.789              1.411              0.868
 Vibration     4          0.919              1.110              0.517
 Vibration     5          0.969              1.010              0.432

 Optimization completed.
    -- Stationary point found.
 Normal termination of Gaussian 09 at Wed Oct 26 17:24:45 2016.
