 Gaussian 09, Revision C.01,
 Gaussian 09:  AM64L-G09RevC.01 23-Sep-2011

 ----------------------------------------------------------------------
 #P B3PW91/GenECP SCFCon=7 SCFCyc=250 GFInput GFOldPrint Pseudo=Read Fr
 eq Integral=(Grid=UltraFine) Pop=Regular IOp(1/33=0,2/11=1,3/27=8,6/7=
 3)
 ----------------------------------------------------------------------

 (Enter /opt/qcapps/g09/l101.exe)
 ---------
 Frequency
 ---------
 Charge =  0 Multiplicity = 1

                         Standard orientation:
 ---------------------------------------------------------------------
 Center     Atomic      Atomic             Coordinates (Angstroms)
 Number     Number       Type             X           Y           Z
 ---------------------------------------------------------------------
      1         22           0       -0.000062    0.000077   -0.000386
      2          8           0       -1.436655    0.261796   -1.055044
      3          1           0       -2.319158   -0.097122   -0.921056
      4          8           0       -0.262618   -1.432928    1.058732
      5          1           0        0.093705   -2.316555    0.924951
      6          8           0        1.435028   -0.265421   -1.056151
      7          1           0        2.318351    0.092237   -0.924126
      8          8           0        0.264377    1.436529    1.053526
      9          1           0       -0.092592    2.319931    0.920230
 ---------------------------------------------------------------------

 SCF Done:  E(RB3PW91) =  -361.765740582     A.U. after   11 cycles

 The electronic state is 1-A.
 Alpha  occ. eigenvalues --  -19.13533 -19.13530 -19.13529 -19.13527  -2.50022
 Alpha  occ. eigenvalues --   -1.53595  -1.53317  -1.53315  -0.97916  -0.96773
 Alpha  occ. eigenvalues --   -0.96718  -0.96714  -0.49281  -0.48891  -0.48890
 Alpha  occ. eigenvalues --   -0.48388  -0.36726  -0.35912  -0.35275  -0.34034
 Alpha  occ. eigenvalues --   -0.34028  -0.31570  -0.31560  -0.31410
 Alpha virt. eigenvalues --   -0.04714  -0.04170  -0.01506  -0.01070  -0.01064
 Alpha virt. eigenvalues --    0.00784   0.02054   0.02063   0.04087   0.04359
 Alpha virt. eigenvalues --    0.08839   0.12872   0.13689   0.13694   0.14339

 Mulliken atomic charges:
              1
     1  Ti   1.225117
     2  O   -0.656679
     3  H    0.350343
     4  O   -0.656459
     5  H    0.350317
     6  O   -0.656714
     7  H    0.350340
     8  O   -0.656573
     9  H    0.350310
 Sum of Mulliken atomic charges =   0.00000

 Dipole moment (field-independent basis, Debye):
    X=             -0.0005    Y=             -0.0011    Z=             -0.0039  Tot=              0.0041
 Quadrupole moment (field-independent basis, Debye-Ang):
   XX=            -31.0925   YY=            -31.0737   ZZ=            -46.7374
   XY=              0.0187   XZ=             -0.0124   YZ=             -0.0084

  Exact polarizability:  48.061   0.005  48.052  -0.004  -0.003  41.584
 Approx polarizability:  70.182   0.004  70.167  -0.003  -0.003  63.031

                     1                      2                      3
                     A                      A                      A
 Frequencies --   167.5580               167.9337               168.3413
 Red. masses --     2.8901                 1.7903                 1.8181
 Frc consts  --     0.0478                 0.0297                 0.0304
 IR Inten    --     0.7332                13.5049                12.9335

                     4                      5                      6
                     A                      A                      A
 Frequencies --   177.8842               226.8334               246.2495
 Red. masses --     4.1471                 3.5804                 1.3628
 Frc consts  --     0.0773                 0.1085                 0.0487
 IR Inten    --     6.1963                24.7548                 0.0079

                     7                      8                      9
                     A                      A                      A
 Frequencies --   269.8346               269.9798               337.6873
 Red. masses --     1.6783                 1.6806                 1.3528
 Frc consts  --     0.0720                 0.0722                 0.0909
 IR Inten    --   171.9664               172.8995               149.8477

                    10                     11                     12
                     A                      A                      A
 Frequencies --   502.0614               502.3226               530.0194
 Red. masses --     1.4117                 1.4116                 1.1947
 Frc consts  --     0.2097                 0.2099                 0.1977
 IR Inten    --   169.1530               168.9254                 0.4127

                    13                     14                     15
                     A                      A                      A
 Frequencies --   536.6905               717.9758               777.9564
 Red. masses --     1.2103                 7.5005                11.8795
 Frc consts  --     0.2054                 2.2780                 4.2360
 IR Inten    --   315.8610                 0.0011               227.7742

                    16                     17                     18
                     A                      A                      A
 Frequencies --   803.8484               803.9697              3922.2090
 Red. masses --     6.3836                 6.3756                 1.0665
 Frc consts  --     2.4303                 2.4280                 9.6669
 IR Inten    --   218.8473               218.6679                54.3045

                    19                     20                     21
                     A                      A                      A
 Frequencies --  3922.7898              3922.9622              3929.7151
 Red. masses --     1.0666                 1.0666                 1.0682
 Frc consts  --     9.6707                 9.6716                 9.7190
 IR Inten    --   280.6338               305.1145                 0.2196

 - Thermochemistry -
 -------------------
 Temperature   298.150 Kelvin.  Pressure   1.00000 Atm.
 Atom     1 has atomic number 22 and mass  47.94795

 Molecular mass:   115.95891 amu.
 Principal axes and moments of inertia in atomic units:
                           1         2         3
     Eigenvalues --   548.80780 549.18388 564.05236
           X            0.99769   0.06790  -0.00114
           Y           -0.06790   0.99769  -0.00086
           Z            0.00108   0.00094   1.00000
 This molecule is an asymmetric top.
 Rotational symmetry number  1.
 Warning -- assumption of classical behavior for rotation
           may cause significant error
 Rotational temperatures (Kelvin)      0.15782     0.15771     0.15356
 Rotational constants (GHZ):           3.28848     3.28622     3.19960
 Zero-point vibrational energy     137001.3 (Joules/Mol)
                                   32.74409 (Kcal/Mol)
 Warning -- explicit consideration of  13 degrees of freedom as
           vibrations may cause significant error
 Vibrational temperatures:    241.08   241.62   242.21   255.94   326.36
          (Kelvin)            354.30   388.23   388.44   485.86   722.35
                              722.73   762.58   772.18  1033.01  1119.30
                             1156.56  1156.73  5643.18  5644.01  5644.26
                             5653.98

 Zero-point correction=                           0.052181 (Hartree/Particle)
 Thermal correction to Energy=                    0.060944
 Thermal correction to Enthalpy=                  0.061889
 Thermal correction to Gibbs Free Energy=         0.020086
 Sum of electronic and zero-point Energies=           -361.713560
 Sum of electronic and thermal Energies=              -361.704796
 Sum of electronic and thermal Enthalpies=            -361.703852
 Sum of electronic and thermal Free Energies=         -361.745654

                     E (Thermal)             CV                S
                      KCal/Mol        Cal/Mol-Kelvin    Cal/Mol-Kelvin
 Total                   38.243             29.718             87.981
 Electronic               0.000              0.000              0.000
 Translational            0.889              2.981             40.159
 Rotational               0.889              2.981             26.633
 Vibrational             36.466             23.756             21.188
 Vibration     1          0.624              1.882              2.463
 Vibration     2          0.625              1.882              2.458
 Vibration     3          0.625              1.881              2.454
 Vibration     4          0.628              1.870              2.351
 Vibration     5          0.650              1.800              1.904
 Vibration     6          0.661              1.769              1.757
 Vibration     7          0.674              1.729              1.597
 Vibration     8          0.674              1.728              1.596
 Vibration     9          0.718              1.600              1.223
 Vibration    10          0.857              1.245              0.653
 Vibration    11          0.858              1.245              0.652
 Vibration    12          0.885              1.184              0.587
 Vibration    13          0.892              1.169              0.572

 Normal termination of Gaussian 09 at Wed Oct 26 17:45:27 2016.
