 Gaussian 09, Revision C.01,
 Gaussian 09:  AM64L-G09RevC.01 23-Sep-2011

 ----------------------------------------------------------------------
 #P B3PW91/GenECP SCFCon=7 SCFCyc=250 GFInput GFOldPrint Pseudo=Read Fr
 eq Integral=(Grid=UltraFine) Pop=Regular IOp(1/33=0,2/11=1,3/27=8,6/7=
 3)
 ----------------------------------------------------------------------

 (Enter /opt/qcapps/g09/l101.exe)
 ---------
 Frequency
 ---------
 Charge =  0 Multiplicity = 1

                         Standard orientation:
 ---------------------------------------------------------------------
 Center     Atomic      Atomic             Coordinates (Angstroms)
 Number     Number       Type             X           Y           Z
 ---------------------------------------------------------------------
      1         22           0        0.001242    0.049708   -0.000259
      2          8           0       -0.153362    1.653741    0.000247
      3          8           0        1.718794   -0.581234    0.000197
      4          1           0        2.065508   -1.478259    0.000380
      5          8           0       -1.522077   -0.942801    0.000153
      6          1           0       -2.439679   -0.652960    0.000544
 ---------------------------------------------------------------------

 SCF Done:  E(RB3PW91) =  -285.284754981     A.U. after   14 cycles

 The electronic state is 1-A.
 Alpha  occ. eigenvalues --  -19.14896 -19.13941 -19.11813  -2.49565  -1.53824
 Alpha  occ. eigenvalues --   -1.53068  -1.53035  -0.98432  -0.97155  -0.86823
 Alpha  occ. eigenvalues --   -0.50371  -0.49074  -0.36565  -0.35307  -0.35269
 Alpha  occ. eigenvalues --   -0.34432  -0.32424  -0.32404  -0.30089
 Alpha virt. eigenvalues --   -0.10282  -0.06322  -0.03620  -0.01448   0.00601
 Alpha virt. eigenvalues --    0.01962   0.02025   0.02745   0.03819   0.05317
 Alpha virt. eigenvalues --    0.10717   0.11527   0.12081   0.12713   0.12715

 Mulliken atomic charges:
              1
     1  Ti   1.146275
     2  O   -0.466100
     3  O   -0.689376
     4  H    0.341270
     5  O   -0.684074
     6  H    0.352005
 Sum of Mulliken atomic charges =   0.00000

 Dipole moment (field-independent basis, Debye):
    X=             -0.9699    Y=             -3.1403    Z=             -0.0027  Tot=              3.2866
 Quadrupole moment (field-independent basis, Debye-Ang):
   XX=            -29.7865   YY=            -37.8460   ZZ=            -29.6165
   XY=             -3.8001   XZ=             -0.0016   YZ=             -0.0023

  Exact polarizability:  43.959  -1.609  42.865   0.000   0.000  25.955
 Approx polarizability:  63.161  -3.582  82.585  -0.001   0.008  31.086

                     1                      2                      3
                     A                      A                      A
 Frequencies --    30.9199               182.6814               257.9329
 Red. masses --     6.7154                 3.6614                 7.5390
 Frc consts  --     0.0038                 0.0720                 0.2955
 IR Inten    --    42.2665                22.4420                 8.8149

                     4                      5                      6
                     A                      A                      A
 Frequencies --   427.6909               467.1011               533.8031
 Red. masses --     1.2699                 1.1404                 1.1893
 Frc consts  --     0.1369                 0.1466                 0.1997
 IR Inten    --   138.9338               135.7629               205.9132

                     7                      8                      9
                     A                      A                      A
 Frequencies --   550.0674               705.9282               815.3120
 Red. masses --     1.2993                 8.4067                 8.5579
 Frc consts  --     0.2316                 2.4683                 3.3517
 IR Inten    --   144.8076                60.4760               217.4586

                    10                     11                     12
                     A                      A                      A
 Frequencies --  1083.2960              3919.4560              3925.5592
 Red. masses --    18.9808                 1.0669                 1.0674
 Frc consts  --    13.1238                 9.6566                 9.6912
 IR Inten    --   267.7783               186.2800               103.3619

 - Thermochemistry -
 -------------------
 Temperature   298.150 Kelvin.  Pressure   1.00000 Atm.
 Atom     1 has atomic number 22 and mass  47.94795

 Molecular mass:    97.94834 amu.
 Principal axes and moments of inertia in atomic units:
                           1         2         3
     Eigenvalues --   235.65276 339.44153 575.09425
           X            0.99877  -0.04959  -0.00001
           Y            0.04959   0.99877  -0.00001
           Z            0.00001   0.00001   1.00000
 This molecule is an asymmetric top.
 Rotational symmetry number  1.
 Rotational temperatures (Kelvin)      0.36755     0.25517     0.15061
 Rotational constants (GHZ):           7.65848     5.31680     3.13817
 Zero-point vibrational energy      77157.6 (Joules/Mol)
                                   18.44112 (Kcal/Mol)
 Warning -- explicit consideration of   7 degrees of freedom as
           vibrations may cause significant error
 Vibrational temperatures:     44.49   262.84   371.11   615.35   672.05
          (Kelvin)            768.02   791.42  1015.67  1173.05  1558.62
                             5639.22  5648.00

 Zero-point correction=                           0.029388 (Hartree/Particle)
 Thermal correction to Energy=                    0.035294
 Thermal correction to Enthalpy=                  0.036238
 Thermal correction to Gibbs Free Energy=        -0.000838
 Sum of electronic and zero-point Energies=           -285.255367
 Sum of electronic and thermal Energies=              -285.249461
 Sum of electronic and thermal Enthalpies=            -285.248517
 Sum of electronic and thermal Free Energies=         -285.285593

                     E (Thermal)             CV                S
                      KCal/Mol        Cal/Mol-Kelvin    Cal/Mol-Kelvin
 Total                   22.147             18.344             78.032
 Electronic               0.000              0.000              0.000
 Translational            0.889              2.981             39.656
 Rotational               0.889              2.981             25.334
 Vibrational             20.370             12.382             13.042
 Vibration     1          0.594              1.984              5.770
 Vibration     2          0.630              1.863              2.301
 Vibration     3          0.667              1.749              1.676
 Vibration     4          0.789              1.410              0.866
 Vibration     5          0.824              1.323              0.746
 Vibration     6          0.889              1.175              0.579
 Vibration     7          0.905              1.140              0.544

 Optimization completed.
    -- Stationary point found.
 Normal termination of Gaussian 09 at Wed Oct 26 16:48:51 2016.
