 Gaussian 09, Revision C.01,
 Gaussian 09:  AM64L-G09RevC.01 23-Sep-2011

 ----------------------------------------------------------------------
 #T B3PW91/GenECP SCFCon=7 SCFCyc=250 GFInput GFOldPrint Opt=(MaxCyc=60
 ,CalcFC) NoSym Integral=(Grid=UltraFine) Pop=Regular Pseudo=Read IOp(1
 /33=0,2/11=1,3/27=8,6/7=3)
 ----------------------------------------------------------------------
 ---------
 TiO2 1-5a
 ---------
 Charge =  0 Multiplicity = 1

 SCF Done:  E(RB3PW91) =  -361.707057432     A.U. after   15 cycles

  Exact polarizability:   0.000   0.000   0.000   0.000   0.000   0.000
 Approx polarizability:  85.920  -0.929  91.240  -0.331   1.692  84.118

 SCF Done:  E(RB3PW91) =  -361.740114396     A.U. after   11 cycles
 SCF Done:  E(RB3PW91) =  -361.759305764     A.U. after   11 cycles
 SCF Done:  E(RB3PW91) =  -361.763472159     A.U. after   10 cycles
 SCF Done:  E(RB3PW91) =  -361.763349555     A.U. after   10 cycles
 SCF Done:  E(RB3PW91) =  -361.763553197     A.U. after    9 cycles
 SCF Done:  E(RB3PW91) =  -361.764325151     A.U. after   10 cycles
 SCF Done:  E(RB3PW91) =  -361.764449913     A.U. after   10 cycles
 SCF Done:  E(RB3PW91) =  -361.764800902     A.U. after   10 cycles
 SCF Done:  E(RB3PW91) =  -361.764019595     A.U. after   10 cycles
 SCF Done:  E(RB3PW91) =  -361.764867861     A.U. after    8 cycles
 SCF Done:  E(RB3PW91) =  -361.764876612     A.U. after    8 cycles
 SCF Done:  E(RB3PW91) =  -361.764883882     A.U. after    9 cycles
 SCF Done:  E(RB3PW91) =  -361.764894607     A.U. after    8 cycles
 SCF Done:  E(RB3PW91) =  -361.764904286     A.U. after    8 cycles
 SCF Done:  E(RB3PW91) =  -361.764905538     A.U. after    9 cycles
 SCF Done:  E(RB3PW91) =  -361.764907225     A.U. after    9 cycles
 SCF Done:  E(RB3PW91) =  -361.764910729     A.U. after    8 cycles
 SCF Done:  E(RB3PW91) =  -361.764911095     A.U. after    7 cycles
 SCF Done:  E(RB3PW91) =  -361.764911130     A.U. after    6 cycles
 Optimization completed.
    -- Stationary point found.

                          Input orientation:
 ---------------------------------------------------------------------
 Center     Atomic      Atomic             Coordinates (Angstroms)
 Number     Number       Type             X           Y           Z
 ---------------------------------------------------------------------
      1         22           0        0.042503    0.097451   -0.061733
      2          8           0        0.916219    1.302979    0.956952
      3          1           0        0.642751    2.207214    1.138752
      4          8           0       -1.685008   -0.008674    0.432782
      5          1           0       -2.146028   -0.746401    0.842473
      6          8           0        0.842193   -1.500925    0.132702
      7          1           0        1.132301   -2.101929   -0.560085
      8          8           0        0.051959    0.605939   -1.790820
      9          1           0       -0.715137    0.647607   -2.370028
 ---------------------------------------------------------------------

 Alpha  occ. eigenvalues --  -19.13905 -19.13721 -19.13638 -19.12642  -2.50084
 Alpha  occ. eigenvalues --   -1.53683  -1.53481  -1.53220  -0.97983  -0.97042
 Alpha  occ. eigenvalues --   -0.96887  -0.96051  -0.49477  -0.49201  -0.48759
 Alpha  occ. eigenvalues --   -0.48085  -0.36444  -0.36286  -0.35038  -0.34474
 Alpha  occ. eigenvalues --   -0.33634  -0.32347  -0.31556  -0.30357
 Alpha virt. eigenvalues --   -0.04999  -0.04187  -0.01860  -0.00878  -0.00109
 Alpha virt. eigenvalues --    0.00045   0.02032   0.02824   0.03073   0.04498
 Alpha virt. eigenvalues --    0.10434   0.11830   0.12796   0.13669   0.14410

 Mulliken atomic charges:
              1
     1  Ti   1.231932
     2  O   -0.659843
     3  H    0.345286
     4  O   -0.659894
     5  H    0.351716
     6  O   -0.654719
     7  H    0.351275
     8  O   -0.656941
     9  H    0.351189
 Sum of Mulliken atomic charges =   0.00000

 Dipole moment (field-independent basis, Debye):
    X=             -2.0364    Y=             -0.7731    Z=             -1.1508  Tot=              2.4635
 Orbital energies and kinetic energies (alpha):
                                 1                 2
   1         O               -19.139051         29.120437
   2         O               -19.137209         29.120449
   3         O               -19.136376         29.120550
   4         O               -19.126419         29.120505
   5         O                -2.500841          1.505405
   6         O                -1.536827          2.405172
   7         O                -1.534814          2.409218
   8         O                -1.532199          2.405852

 Normal termination of Gaussian 09 at Wed Oct 26 17:41:01 2016.
