 Gaussian 09, Revision C.01,
 Gaussian 09:  AM64L-G09RevC.01 23-Sep-2011

 ----------------------------------------------------------------------
 #T B3PW91/GenECP SCFCon=7 SCFCyc=250 GFInput GFOldPrint Opt=(MaxCyc=60
 ) Integral=(Grid=UltraFine) Pop=Regular Pseudo=Read IOp(1/33=0,2/11=1,
 3/27=8,6/7=3)
 ----------------------------------------------------------------------
 --------
 TiO2 1-3
 --------
 Charge =  0 Multiplicity = 1

 SCF Done:  E(RB3PW91) =  -285.175906654     A.U. after   16 cycles
 SCF Done:  E(RB3PW91) =  -285.225772213     A.U. after   12 cycles
 SCF Done:  E(RB3PW91) =  -285.268837614     A.U. after   12 cycles
 SCF Done:  E(RB3PW91) =  -285.275463919     A.U. after   11 cycles
 SCF Done:  E(RB3PW91) =  -285.282391649     A.U. after   11 cycles
 SCF Done:  E(RB3PW91) =  -285.283065492     A.U. after   10 cycles
 SCF Done:  E(RB3PW91) =  -285.284153625     A.U. after   11 cycles
 SCF Done:  E(RB3PW91) =  -285.284427697     A.U. after   11 cycles
 SCF Done:  E(RB3PW91) =  -285.284584977     A.U. after   10 cycles
 SCF Done:  E(RB3PW91) =  -285.284683000     A.U. after   10 cycles
 SCF Done:  E(RB3PW91) =  -285.284719515     A.U. after    9 cycles
 SCF Done:  E(RB3PW91) =  -285.284734365     A.U. after    8 cycles
 SCF Done:  E(RB3PW91) =  -285.284746338     A.U. after    8 cycles
 SCF Done:  E(RB3PW91) =  -285.284749854     A.U. after    8 cycles
 SCF Done:  E(RB3PW91) =  -285.284752448     A.U. after    9 cycles
 SCF Done:  E(RB3PW91) =  -285.284753278     A.U. after    8 cycles
 SCF Done:  E(RB3PW91) =  -285.284753790     A.U. after    8 cycles
 SCF Done:  E(RB3PW91) =  -285.284754364     A.U. after    8 cycles
 SCF Done:  E(RB3PW91) =  -285.284754810     A.U. after    8 cycles
 SCF Done:  E(RB3PW91) =  -285.284754981     A.U. after    8 cycles
 Optimization completed.
    -- Stationary point found.

                         Standard orientation:
 ---------------------------------------------------------------------
 Center     Atomic      Atomic             Coordinates (Angstroms)
 Number     Number       Type             X           Y           Z
 ---------------------------------------------------------------------
      1         22           0       -0.001242    0.049708    0.000259
      2          8           0        0.153363    1.653741   -0.000247
      3          8           0       -1.718794   -0.581233   -0.000197
      4          1           0       -2.065509   -1.478257   -0.000380
      5          8           0        1.522076   -0.942802   -0.000153
      6          1           0        2.439679   -0.652962   -0.000544
 ---------------------------------------------------------------------

 The electronic state is 1-A.
 Alpha  occ. eigenvalues --  -19.14896 -19.13941 -19.11813  -2.49565  -1.53824
 Alpha  occ. eigenvalues --   -1.53068  -1.53035  -0.98432  -0.97155  -0.86823
 Alpha  occ. eigenvalues --   -0.50371  -0.49074  -0.36565  -0.35307  -0.35269
 Alpha  occ. eigenvalues --   -0.34432  -0.32424  -0.32404  -0.30089
 Alpha virt. eigenvalues --   -0.10282  -0.06322  -0.03620  -0.01448   0.00601
 Alpha virt. eigenvalues --    0.01962   0.02025   0.02745   0.03819   0.05317
 Alpha virt. eigenvalues --    0.10717   0.11527   0.12081   0.12713   0.12715

 Mulliken atomic charges:
              1
     1  Ti   1.146275
     2  O   -0.466100
     3  O   -0.689376
     4  H    0.341270
     5  O   -0.684075
     6  H    0.352005
 Sum of Mulliken atomic charges =   0.00000

 Dipole moment (field-independent basis, Debye):
    X=              0.9699    Y=             -3.1403    Z=              0.0027  Tot=              3.2866
 Orbital energies and kinetic energies (alpha):
                                 1                 2
   1         O               -19.148963         29.121023
   2         O               -19.139406         29.121104
   3         O               -19.118134         29.125731
   4         O                -2.495647          1.495679
   5         O                -1.538242          2.349396
   6         O                -1.530681          2.445991
   7         O                -1.530347          2.387875
   8         O                -0.984324          2.729028

 Normal termination of Gaussian 09 at Wed Oct 26 16:47:21 2016.
