 Gaussian 09, Revision C.01,
 Gaussian 09:  AM64L-G09RevC.01 23-Sep-2011

 ----------------------------------------------------------------------
 #P B3PW91/GenECP SCFCon=7 SCFCyc=250 GFInput GFOldPrint Pseudo=Read Fr
 eq Integral=(Grid=UltraFine) Pop=Regular IOp(1/33=0,2/11=1,3/27=8,6/7=
 3)
 ----------------------------------------------------------------------

 (Enter /opt/qcapps/g09/l101.exe)
 ---------
 Frequency
 ---------
 Charge =  0 Multiplicity = 1

                         Standard orientation:
 ---------------------------------------------------------------------
 Center     Atomic      Atomic             Coordinates (Angstroms)
 Number     Number       Type             X           Y           Z
 ---------------------------------------------------------------------
      1         22           0       -0.176572    0.029690    0.088175
      2          8           0       -0.048582   -0.724716    1.521403
      3          8           0        0.384547    1.790026    0.120642
      4          1           0        0.024375    2.475769   -0.450838
      5          8           0       -1.689427   -0.367671   -0.850442
      6          1           0       -2.389728   -0.964955   -0.571174
      7          8           0        1.605269   -0.787197   -0.775716
      8          1           0        2.247853   -0.085431   -0.947337
      9          1           0        1.987622   -1.362104   -0.097610
 ---------------------------------------------------------------------

 SCF Done:  E(RB3PW91) =  -361.729366138     A.U. after   15 cycles

 The electronic state is 1-A.
 Alpha  occ. eigenvalues --  -19.24250 -19.12092 -19.11481 -19.08907  -2.46225
 Alpha  occ. eigenvalues --   -1.50532  -1.49736  -1.49573  -1.11580  -0.95662
 Alpha  occ. eigenvalues --   -0.94820  -0.84136  -0.63098  -0.50772  -0.47267
 Alpha  occ. eigenvalues --   -0.46363  -0.42780  -0.33923  -0.32975  -0.31956
 Alpha  occ. eigenvalues --   -0.31700  -0.29827  -0.29546  -0.27618
 Alpha virt. eigenvalues --   -0.04566  -0.02537  -0.01405   0.00009   0.01124
 Alpha virt. eigenvalues --    0.01861   0.03466   0.03870   0.04856   0.05619
 Alpha virt. eigenvalues --    0.09130   0.10979   0.12941   0.13261   0.14421

 Mulliken atomic charges:
              1
     1  Ti   0.996538
     2  O   -0.501271
     3  O   -0.692905
     4  H    0.332794
     5  O   -0.679741
     6  H    0.344034
     7  O   -0.602494
     8  H    0.398210
     9  H    0.404835
 Sum of Mulliken atomic charges =   0.00000

 Dipole moment (field-independent basis, Debye):
    X=              2.8802    Y=             -0.5693    Z=             -3.3047  Tot=              4.4205
 Quadrupole moment (field-independent basis, Debye-Ang):
   XX=            -27.0405   YY=            -36.3695   ZZ=            -46.8076
   XY=             -2.4255   XZ=             -3.6081   YZ=             -1.4340

  Exact polarizability:  44.104   3.204  46.016   3.756  -5.408  42.574
 Approx polarizability:  58.216   6.300  68.496   9.851 -17.777  76.547

                     1                      2                      3
                     A                      A                      A
 Frequencies --    90.2202               113.8517               158.5977
 Red. masses --     4.1127                 4.0770                 2.8701
 Frc consts  --     0.0197                 0.0311                 0.0425
 IR Inten    --    12.0680                 5.4143                35.6505

                     4                      5                      6
                     A                      A                      A
 Frequencies --   176.0336               201.7603               250.3640
 Red. masses --     1.6124                 2.6101                 7.2257
 Frc consts  --     0.0294                 0.0626                 0.2669
 IR Inten    --    50.3210                37.9406                 8.7171

                     7                      8                      9
                     A                      A                      A
 Frequencies --   364.6927               388.1384               476.1737
 Red. masses --     1.3601                 2.9308                 1.2869
 Frc consts  --     0.1066                 0.2601                 0.1719
 IR Inten    --    62.1732                51.8899               167.0259

                    10                     11                     12
                     A                      A                      A
 Frequencies --   513.6820               535.9461               573.9177
 Red. masses --     1.3053                 1.2655                 1.3113
 Frc consts  --     0.2029                 0.2142                 0.2545
 IR Inten    --   293.4992               178.5782               158.2645

                    13                     14                     15
                     A                      A                      A
 Frequencies --   602.4690               708.2032               782.4400
 Red. masses --     1.2451                 5.4706                 6.9496
 Frc consts  --     0.2663                 1.6166                 2.5067
 IR Inten    --     7.2272                77.3049               201.8313

                    16                     17                     18
                     A                      A                      A
 Frequencies --  1059.9965              1631.2651              3804.9162
 Red. masses --    16.9352                 1.0832                 1.0442
 Frc consts  --    11.2111                 1.6983                 8.9071
 IR Inten    --   257.8077               107.2268                95.8130

                    19                     20                     21
                     A                      A                      A
 Frequencies --  3908.4781              3910.4797              3924.3968
 Red. masses --     1.0818                 1.0678                 1.0670
 Frc consts  --     9.7363                 9.6205                 9.6816
 IR Inten    --    89.5694               168.4150               114.3399

 - Thermochemistry -
 -------------------
 Temperature   298.150 Kelvin.  Pressure   1.00000 Atm.
 Atom     1 has atomic number 22 and mass  47.94795

 Molecular mass:   115.95891 amu.
 Principal axes and moments of inertia in atomic units:
                           1         2         3
     Eigenvalues --   503.34004 591.95925 665.38760
           X            0.99956  -0.02116  -0.02081
           Y            0.02081   0.99964  -0.01686
           Z            0.02116   0.01642   0.99964
 This molecule is an asymmetric top.
 Rotational symmetry number  1.
 Warning -- assumption of classical behavior for rotation
           may cause significant error
 Rotational temperatures (Kelvin)      0.17208     0.14632     0.13017
 Rotational constants (GHZ):           3.58553     3.04876     2.71232
 Zero-point vibrational energy     144604.7 (Joules/Mol)
                                   34.56136 (Kcal/Mol)
 Warning -- explicit consideration of  13 degrees of freedom as
           vibrations may cause significant error
 Vibrational temperatures:    129.81   163.81   228.19   253.27   290.29
          (Kelvin)            360.22   524.71   558.44   685.11   739.07
                              771.11   825.74   866.82  1018.95  1125.76
                             1525.10  2347.02  5474.42  5623.42  5626.30
                             5646.32

 Zero-point correction=                           0.055077 (Hartree/Particle)
 Thermal correction to Energy=                    0.063524
 Thermal correction to Enthalpy=                  0.064468
 Thermal correction to Gibbs Free Energy=         0.022583
 Sum of electronic and zero-point Energies=           -361.674289
 Sum of electronic and thermal Energies=              -361.665843
 Sum of electronic and thermal Enthalpies=            -361.664898
 Sum of electronic and thermal Free Energies=         -361.706783

                     E (Thermal)             CV                S
                      KCal/Mol        Cal/Mol-Kelvin    Cal/Mol-Kelvin
 Total                   39.862             27.925             88.154
 Electronic               0.000              0.000              0.000
 Translational            0.889              2.981             40.159
 Rotational               0.889              2.981             26.786
 Vibrational             38.084             21.963             21.209
 Vibration     1          0.602              1.956              3.655
 Vibration     2          0.607              1.938              3.202
 Vibration     3          0.621              1.893              2.566
 Vibration     4          0.628              1.872              2.370
 Vibration     5          0.639              1.837              2.117
 Vibration     6          0.663              1.762              1.728
 Vibration     7          0.738              1.545              1.102
 Vibration     8          0.756              1.496              1.007
 Vibration     9          0.833              1.303              0.720
 Vibration    10          0.869              1.220              0.625
 Vibration    11          0.891              1.171              0.574
 Vibration    12          0.930              1.088              0.497
 Vibration    13          0.961              1.027              0.445

 Optimization completed.
    -- Stationary point found.
 Normal termination of Gaussian 09 at Wed Oct 26 17:43:48 2016.
