 Gaussian 09, Revision C.01,
 Gaussian 09:  AM64L-G09RevC.01 23-Sep-2011

 ----------------------------------------------------------------------
 #T B3PW91/GenECP SCFCon=7 SCFCyc=250 GFInput GFOldPrint Opt=(MaxCyc=60
 ,CalcFC,TS,NoEigenTest) Integral=(Grid=UltraFine) NoSym Pop=Regular Ps
 eudo=Read IOp(1/33=0,2/11=1,3/27=8,6/7=3)
 ----------------------------------------------------------------------
 ------------
 TiO2 1 TS2-3
 ------------
 Charge =  0 Multiplicity = 1

 SCF Done:  E(RB3PW91) =  -285.120830306     A.U. after   14 cycles

  Exact polarizability:   0.000   0.000   0.000   0.000   0.000   0.000
 Approx polarizability:  81.639 -11.921  99.340  11.194   5.371  47.422

 SCF Done:  E(RB3PW91) =  -285.150521842     A.U. after   11 cycles
 SCF Done:  E(RB3PW91) =  -285.183348711     A.U. after   11 cycles
 SCF Done:  E(RB3PW91) =  -285.201573304     A.U. after   11 cycles
 SCF Done:  E(RB3PW91) =  -285.209693649     A.U. after   11 cycles
 SCF Done:  E(RB3PW91) =  -285.211785322     A.U. after   11 cycles
 SCF Done:  E(RB3PW91) =  -285.212586480     A.U. after   11 cycles
 SCF Done:  E(RB3PW91) =  -285.213144191     A.U. after   11 cycles
 SCF Done:  E(RB3PW91) =  -285.212794384     A.U. after   10 cycles
 SCF Done:  E(RB3PW91) =  -285.213074814     A.U. after   11 cycles
 SCF Done:  E(RB3PW91) =  -285.213213111     A.U. after   10 cycles
 SCF Done:  E(RB3PW91) =  -285.208135084     A.U. after   11 cycles
 SCF Done:  E(RB3PW91) =  -285.212735818     A.U. after   11 cycles
 SCF Done:  E(RB3PW91) =  -285.213234276     A.U. after   11 cycles
 SCF Done:  E(RB3PW91) =  -285.213280019     A.U. after   10 cycles
 SCF Done:  E(RB3PW91) =  -285.213281135     A.U. after    9 cycles
 SCF Done:  E(RB3PW91) =  -285.213283625     A.U. after    9 cycles
 Optimization completed.
    -- Stationary point found.

                          Input orientation:
 ---------------------------------------------------------------------
 Center     Atomic      Atomic             Coordinates (Angstroms)
 Number     Number       Type             X           Y           Z
 ---------------------------------------------------------------------
      1         22           0        0.568541    0.233602   -0.417504
      2          8           0        0.334919   -1.159371    0.544438
      3          8           0        1.438397    1.395634    0.307534
      4          8           0       -1.457922    0.165198   -0.250383
      5          1           0       -1.951762    0.738580    0.346792
      6          1           0       -0.907727   -0.699536    0.313716
 ---------------------------------------------------------------------

 Alpha  occ. eigenvalues --  -19.18008 -19.11040 -19.10566  -2.48357  -1.53017
 Alpha  occ. eigenvalues --   -1.52361  -1.51709  -1.03754  -0.88842  -0.85819
 Alpha  occ. eigenvalues --   -0.57046  -0.44785  -0.38417  -0.34905  -0.33863
 Alpha  occ. eigenvalues --   -0.32230  -0.30822  -0.30644  -0.27283
 Alpha virt. eigenvalues --   -0.09572  -0.07064  -0.05805  -0.01344   0.00218
 Alpha virt. eigenvalues --    0.01350   0.01798   0.03402   0.03706   0.05221
 Alpha virt. eigenvalues --    0.09925   0.10837   0.12076   0.12983   0.13920

 Mulliken atomic charges:
              1
     1  Ti   1.007864
     2  O   -0.633529
     3  O   -0.475430
     4  O   -0.710515
     5  H    0.370158
     6  H    0.441452
 Sum of Mulliken atomic charges =   0.00000

 Dipole moment (field-independent basis, Debye):
    X=             -2.0579    Y=              0.5944    Z=             -4.0863  Tot=              4.6137
 Orbital energies and kinetic energies (alpha):
                                 1                 2
   1         O               -19.180076         29.120124
   2         O               -19.110399         29.125910
   3         O               -19.105660         29.125480
   4         O                -2.483568          1.488788
   5         O                -1.530169          2.324602
   6         O                -1.523606          2.395170
   7         O                -1.517088          2.414494
   8         O                -1.037536          2.626984

 Normal termination of Gaussian 09 at Wed Oct 26 17:05:16 2016.
