 Gaussian 09, Revision C.01,
 Gaussian 09:  AM64L-G09RevC.01 23-Sep-2011

 ----------------------------------------------------------------------
 #T B3PW91/GenECP SCFCon=7 SCFCyc=250 GFInput GFOldPrint Opt=(MaxCyc=60
 ,CalcFC) NoSym Integral=(Grid=UltraFine) Pop=Regular Pseudo=Read IOp(1
 /33=0,2/11=1,3/27=8,6/7=3)
 ----------------------------------------------------------------------
 ----
 TiO2
 ----
 Charge =  0 Multiplicity = 1

 SCF Done:  E(RB3PW91) =  -285.218266675     A.U. after   13 cycles

  Exact polarizability:   0.000   0.000   0.000   0.000   0.000   0.000
 Approx polarizability:  97.901  -0.005  57.981   0.000   0.000  31.564

 SCF Done:  E(RB3PW91) =  -285.219337488     A.U. after   12 cycles
 SCF Done:  E(RB3PW91) =  -285.221185269     A.U. after   12 cycles
 SCF Done:  E(RB3PW91) =  -285.222420759     A.U. after   11 cycles
 SCF Done:  E(RB3PW91) =  -285.223678029     A.U. after   10 cycles
 SCF Done:  E(RB3PW91) =  -285.220859110     A.U. after   12 cycles
 SCF Done:  E(RB3PW91) =  -285.223887918     A.U. after   12 cycles
 SCF Done:  E(RB3PW91) =  -285.223978463     A.U. after   10 cycles
 SCF Done:  E(RB3PW91) =  -285.223977358     A.U. after    9 cycles
 SCF Done:  E(RB3PW91) =  -285.223979837     A.U. after    8 cycles
 SCF Done:  E(RB3PW91) =  -285.223985084     A.U. after    7 cycles
 Optimization completed.
    -- Stationary point found.

                          Input orientation:
 ---------------------------------------------------------------------
 Center     Atomic      Atomic             Coordinates (Angstroms)
 Number     Number       Type             X           Y           Z
 ---------------------------------------------------------------------
      1         22           0        0.000045    0.199214   -0.564146
      2          8           0        1.372552    0.625093    0.238233
      3          8           0       -1.372388    0.625291    0.238253
      4          8           0       -0.000179   -1.924223   -0.323407
      5          1           0       -0.778041   -2.152143    0.205532
      6          1           0        0.777627   -2.152328    0.205535
 ---------------------------------------------------------------------

 Alpha  occ. eigenvalues --  -19.25029 -19.07352 -19.07350  -2.43989  -1.48531
 Alpha  occ. eigenvalues --   -1.48243  -1.47545  -1.12224  -0.83472  -0.81717
 Alpha  occ. eigenvalues --   -0.63720  -0.51585  -0.43472  -0.31586  -0.30426
 Alpha  occ. eigenvalues --   -0.29434  -0.27749  -0.26962  -0.23339
 Alpha virt. eigenvalues --   -0.07338  -0.04736  -0.03238   0.01420   0.01457
 Alpha virt. eigenvalues --    0.01684   0.02392   0.04211   0.04489   0.07464
 Alpha virt. eigenvalues --    0.09630   0.09723   0.11973   0.14131   0.14983

 Mulliken atomic charges:
              1
     1  Ti   0.851448
     2  O   -0.527109
     3  O   -0.527124
     4  O   -0.611497
     5  H    0.407142
     6  H    0.407140
 Sum of Mulliken atomic charges =   0.00000

 Dipole moment (field-independent basis, Debye):
    X=             -0.0005    Y=             -5.4483    Z=             -3.8786  Tot=              6.6879
 Orbital energies and kinetic energies (alpha):
                                 1                 2
   1         O               -19.250287         29.117115
   2         O               -19.073520         29.125925
   3         O               -19.073505         29.126807
   4         O                -2.439886          1.486122
   5         O                -1.485309          2.328134
   6         O                -1.482430          2.382575
   7         O                -1.475453          2.410938
   8         O                -1.122237          2.643720

 Normal termination of Gaussian 09 at Wed Oct 26 16:54:36 2016.
