 Gaussian 09, Revision C.01,
 Gaussian 09:  AM64L-G09RevC.01 23-Sep-2011

 ----------------------------------------------------------------------
 #T B3PW91/GenECP SCFCon=7 SCFCyc=250 GFInput GFOldPrint Opt=(MaxCyc=60
 ,CalcFC) NoSym Integral=(Grid=UltraFine) Pop=Regular Pseudo=Read IOp(1
 /33=0,2/11=1,3/27=8,6/7=3)
 ----------------------------------------------------------------------
 ---------
 TiO2 1-5b
 ---------
 Charge =  0 Multiplicity = 1

 SCF Done:  E(RB3PW91) =  -361.657679691     A.U. after   13 cycles

  Exact polarizability:   0.000   0.000   0.000   0.000   0.000   0.000
 Approx polarizability: 127.679   0.000 127.679   0.000   0.000  40.520

 SCF Done:  E(RB3PW91) =  -361.667145746     A.U. after   12 cycles
 SCF Done:  E(RB3PW91) =  -361.695417518     A.U. after   11 cycles
 SCF Done:  E(RB3PW91) =  -361.732960638     A.U. after   12 cycles
 SCF Done:  E(RB3PW91) =  -361.734762539     A.U. after   12 cycles
 SCF Done:  E(RB3PW91) =  -361.756669275     A.U. after   11 cycles
 SCF Done:  E(RB3PW91) =  -361.742739926     A.U. after   11 cycles
 SCF Done:  E(RB3PW91) =  -361.758557900     A.U. after   11 cycles
 SCF Done:  E(RB3PW91) =  -361.761603859     A.U. after   10 cycles
 SCF Done:  E(RB3PW91) =  -361.763106081     A.U. after   10 cycles
 SCF Done:  E(RB3PW91) =  -361.763932769     A.U. after   11 cycles
 SCF Done:  E(RB3PW91) =  -361.765018358     A.U. after   10 cycles
 SCF Done:  E(RB3PW91) =  -361.765258721     A.U. after    8 cycles
 SCF Done:  E(RB3PW91) =  -361.765545671     A.U. after    9 cycles
 SCF Done:  E(RB3PW91) =  -361.765587339     A.U. after    9 cycles
 SCF Done:  E(RB3PW91) =  -361.765665313     A.U. after    9 cycles
 SCF Done:  E(RB3PW91) =  -361.765689122     A.U. after    7 cycles
 SCF Done:  E(RB3PW91) =  -361.765709748     A.U. after    7 cycles
 SCF Done:  E(RB3PW91) =  -361.765730175     A.U. after    8 cycles
 SCF Done:  E(RB3PW91) =  -361.765741050     A.U. after    7 cycles
 Optimization completed.
    -- Stationary point found.

                          Input orientation:
 ---------------------------------------------------------------------
 Center     Atomic      Atomic             Coordinates (Angstroms)
 Number     Number       Type             X           Y           Z
 ---------------------------------------------------------------------
      1         22           0        0.000206    0.000178   -0.000455
      2          8           0       -0.145397    1.473532   -1.026430
      3          1           0       -0.743946    2.213418   -0.885380
      4          8           0       -1.463037   -0.180668    1.034140
      5          1           0       -2.205556   -0.772004    0.877143
      6          8           0        0.172107   -1.428255   -1.084264
      7          1           0        0.765858   -2.174904   -0.959426
      8          8           0        1.436903    0.135587    1.077329
      9          1           0        2.182862    0.733116    0.967342
 ---------------------------------------------------------------------

 Alpha  occ. eigenvalues --  -19.13532 -19.13530 -19.13528 -19.13527  -2.50022
 Alpha  occ. eigenvalues --   -1.53595  -1.53317  -1.53315  -0.97916  -0.96773
 Alpha  occ. eigenvalues --   -0.96718  -0.96714  -0.49281  -0.48891  -0.48890
 Alpha  occ. eigenvalues --   -0.48388  -0.36726  -0.35912  -0.35275  -0.34034
 Alpha  occ. eigenvalues --   -0.34028  -0.31570  -0.31559  -0.31410
 Alpha virt. eigenvalues --   -0.04714  -0.04170  -0.01506  -0.01070  -0.01064
 Alpha virt. eigenvalues --    0.00784   0.02054   0.02063   0.04087   0.04359
 Alpha virt. eigenvalues --    0.08839   0.12872   0.13689   0.13693   0.14339

 Mulliken atomic charges:
              1
     1  Ti   1.225112
     2  O   -0.656678
     3  H    0.350342
     4  O   -0.656456
     5  H    0.350316
     6  O   -0.656713
     7  H    0.350339
     8  O   -0.656573
     9  H    0.350310
 Sum of Mulliken atomic charges =   0.00000

 Dipole moment (field-independent basis, Debye):
    X=             -0.0011    Y=              0.0002    Z=             -0.0039  Tot=              0.0041
 Orbital energies and kinetic energies (alpha):
                                 1                 2
   1         O               -19.135324         29.119825
   2         O               -19.135302         29.120673
   3         O               -19.135285         29.120750
   4         O               -19.135271         29.120756
   5         O                -2.500222          1.505177
   6         O                -1.535954          2.407865
   7         O                -1.533168          2.405322
   8         O                -1.533146          2.405298

 Normal termination of Gaussian 09 at Wed Oct 26 17:42:06 2016.
