 Gaussian 09, Revision C.01,
 Gaussian 09:  AM64L-G09RevC.01 23-Sep-2011

 ----------------------------------------------------------------------
 #T B3PW91/GenECP SCFCon=7 SCFCyc=250 GFInput GFOldPrint Opt=(MaxCyc=60
 ,CalcFC) NoSym Integral=(Grid=UltraFine) Pop=Regular Pseudo=Read IOp(1
 /33=0,2/11=1,3/27=8,6/7=3)
 ----------------------------------------------------------------------
 --------
 TiO2 1-4
 --------
 Charge =  0 Multiplicity = 1

 SCF Done:  E(RB3PW91) =  -361.695693291     A.U. after   14 cycles

  Exact polarizability:   0.000   0.000   0.000   0.000   0.000   0.000
 Approx polarizability:  71.375  -2.674  88.508  -2.474  -2.916  46.643

 SCF Done:  E(RB3PW91) =  -361.713174753     A.U. after   11 cycles
 SCF Done:  E(RB3PW91) =  -361.720842918     A.U. after   12 cycles
 SCF Done:  E(RB3PW91) =  -361.724442852     A.U. after   12 cycles
 SCF Done:  E(RB3PW91) =  -361.718621312     A.U. after   12 cycles
 SCF Done:  E(RB3PW91) =  -361.725999276     A.U. after   11 cycles
 SCF Done:  E(RB3PW91) =  -361.728173300     A.U. after   10 cycles
 SCF Done:  E(RB3PW91) =  -361.729063798     A.U. after   10 cycles
 SCF Done:  E(RB3PW91) =  -361.729210632     A.U. after    9 cycles
 SCF Done:  E(RB3PW91) =  -361.729277026     A.U. after    9 cycles
 SCF Done:  E(RB3PW91) =  -361.729307051     A.U. after    7 cycles
 SCF Done:  E(RB3PW91) =  -361.729308203     A.U. after    7 cycles
 SCF Done:  E(RB3PW91) =  -361.729309724     A.U. after    7 cycles
 SCF Done:  E(RB3PW91) =  -361.729311474     A.U. after    7 cycles
 SCF Done:  E(RB3PW91) =  -361.729315164     A.U. after    7 cycles
 SCF Done:  E(RB3PW91) =  -361.729331383     A.U. after    7 cycles
 SCF Done:  E(RB3PW91) =  -361.729359213     A.U. after    9 cycles
 SCF Done:  E(RB3PW91) =  -361.729363661     A.U. after    8 cycles
 SCF Done:  E(RB3PW91) =  -361.729364440     A.U. after    7 cycles
 SCF Done:  E(RB3PW91) =  -361.729364461     A.U. after    6 cycles
 Optimization completed.
    -- Stationary point found.

                          Input orientation:
 ---------------------------------------------------------------------
 Center     Atomic      Atomic             Coordinates (Angstroms)
 Number     Number       Type             X           Y           Z
 ---------------------------------------------------------------------
      1         22           0       -0.178548   -0.085833    0.228763
      2          8           0       -0.399288    1.511078    0.026770
      3          8           0        1.563524   -0.637333   -0.046416
      4          1           0        1.801686   -1.511318   -0.371971
      5          8           0       -1.519992   -1.130752   -0.431768
      6          1           0       -2.315433   -0.820005   -0.874340
      7          8           0       -0.096894   -0.050448    2.369008
      8          1           0        0.777769   -0.324693    2.676574
      9          1           0       -0.208479    0.876966    2.621975
 ---------------------------------------------------------------------

 Alpha  occ. eigenvalues --  -19.24250 -19.12092 -19.11481 -19.08907  -2.46225
 Alpha  occ. eigenvalues --   -1.50532  -1.49736  -1.49573  -1.11580  -0.95662
 Alpha  occ. eigenvalues --   -0.94820  -0.84136  -0.63098  -0.50772  -0.47267
 Alpha  occ. eigenvalues --   -0.46363  -0.42780  -0.33923  -0.32975  -0.31956
 Alpha  occ. eigenvalues --   -0.31700  -0.29827  -0.29546  -0.27618
 Alpha virt. eigenvalues --   -0.04566  -0.02537  -0.01405   0.00009   0.01124
 Alpha virt. eigenvalues --    0.01861   0.03466   0.03870   0.04856   0.05619
 Alpha virt. eigenvalues --    0.09130   0.10979   0.12941   0.13261   0.14421

 Mulliken atomic charges:
              1
     1  Ti   0.996540
     2  O   -0.501275
     3  O   -0.692903
     4  H    0.332794
     5  O   -0.679741
     6  H    0.344034
     7  O   -0.602495
     8  H    0.398211
     9  H    0.404835
 Sum of Mulliken atomic charges =   0.00000

 Dipole moment (field-independent basis, Debye):
    X=              0.3095    Y=             -1.9213    Z=              3.9690  Tot=              4.4205
 Orbital energies and kinetic energies (alpha):
                                 1                 2
   1         O               -19.242499         29.116830
   2         O               -19.120917         29.120937
   3         O               -19.114815         29.121110
   4         O               -19.089072         29.125646
   5         O                -2.462253          1.496893
   6         O                -1.505318          2.354593
   7         O                -1.497356          2.396532
   8         O                -1.495730          2.424531

 Normal termination of Gaussian 09 at Wed Oct 26 17:36:56 2016.
