 Gaussian 09, Revision C.01,
 Gaussian 09:  AM64L-G09RevC.01 23-Sep-2011

 ----------------------------------------------------------------------
 #P B3PW91/GenECP SCFCon=7 SCFCyc=250 GFInput GFOldPrint Pseudo=Read Fr
 eq Integral=(Grid=UltraFine) Pop=Regular IOp(1/33=0,2/11=1,3/27=8,6/7=
 3)
 ----------------------------------------------------------------------

 (Enter /opt/qcapps/g09/l101.exe)
 ---------
 Frequency
 ---------
 Charge =  0 Multiplicity = 1

                         Standard orientation:
 ---------------------------------------------------------------------
 Center     Atomic      Atomic             Coordinates (Angstroms)
 Number     Number       Type             X           Y           Z
 ---------------------------------------------------------------------
      1         22           0        0.284804    0.000010   -0.360950
      2          8           0        0.767210   -1.372411    0.408923
      3          8           0        0.766949    1.372529    0.408912
      4          8           0       -1.815977   -0.000116    0.031043
      5          1           0       -2.005613    0.777718    0.574924
      6          1           0       -2.005537   -0.777950    0.574950
 ---------------------------------------------------------------------

 SCF Done:  E(RB3PW91) =  -285.223983872     A.U. after   14 cycles

 The electronic state is 1-A.
 Alpha  occ. eigenvalues --  -19.25029 -19.07352 -19.07350  -2.43989  -1.48531
 Alpha  occ. eigenvalues --   -1.48243  -1.47545  -1.12224  -0.83471  -0.81717
 Alpha  occ. eigenvalues --   -0.63720  -0.51585  -0.43472  -0.31586  -0.30426
 Alpha  occ. eigenvalues --   -0.29434  -0.27749  -0.26962  -0.23339
 Alpha virt. eigenvalues --   -0.07339  -0.04736  -0.03238   0.01420   0.01456
 Alpha virt. eigenvalues --    0.01684   0.02392   0.04211   0.04489   0.07464
 Alpha virt. eigenvalues --    0.09630   0.09723   0.11973   0.14131   0.14983

 Mulliken atomic charges:
              1
     1  Ti   0.851457
     2  O   -0.527118
     3  O   -0.527121
     4  O   -0.611498
     5  H    0.407141
     6  H    0.407139
 Sum of Mulliken atomic charges =   0.00000

 Dipole moment (field-independent basis, Debye):
    X=             -5.7117    Y=             -0.0004    Z=             -3.4790  Tot=              6.6879
 Quadrupole moment (field-independent basis, Debye-Ang):
   XX=            -27.5227   YY=            -40.9295   ZZ=            -27.8254
   XY=              0.0011   XZ=             -8.0693   YZ=             -0.0005

  Exact polarizability:  32.149  -0.002  50.053   1.107   0.000  28.521
 Approx polarizability:  42.802  -0.006 100.256  10.660   0.001  51.324

                     1                      2                      3
                     A                      A                      A
 Frequencies --    99.8767               125.7619               258.5073
 Red. masses --     5.0385                 5.4045                 1.0434
 Frc consts  --     0.0296                 0.0504                 0.0411
 IR Inten    --     0.0023               144.8002                63.8168

                     4                      5                      6
                     A                      A                      A
 Frequencies --   319.4133               404.4062               535.6756
 Red. masses --    16.4825                12.2337                 1.2547
 Frc consts  --     0.9908                 1.1788                 0.2121
 IR Inten    --    11.8148                52.6387               289.4120

                     7                      8                      9
                     A                      A                      A
 Frequencies --   594.1099              1002.4085              1031.0001
 Red. masses --     1.1968                16.3155                18.3675
 Frc consts  --     0.2489                 9.6592                11.5032
 IR Inten    --     0.1740               413.8026                43.6171

                    10                     11                     12
                     A                      A                      A
 Frequencies --  1635.7532              3800.6016              3900.2263
 Red. masses --     1.0838                 1.0442                 1.0830
 Frc consts  --     1.7085                 8.8865                 9.7061
 IR Inten    --   103.0893                96.1181               165.3415

 - Thermochemistry -
 -------------------
 Temperature   298.150 Kelvin.  Pressure   1.00000 Atm.
 Atom     1 has atomic number 22 and mass  47.94795

 Molecular mass:    97.94834 amu.
 Principal axes and moments of inertia in atomic units:
                           1         2         3
     Eigenvalues --   262.94191 341.07854 517.21996
           X            0.99960   0.00002  -0.02829
           Y           -0.00002   1.00000   0.00000
           Z            0.02829   0.00000   0.99960
 This molecule is an asymmetric top.
 Rotational symmetry number  1.
 Rotational temperatures (Kelvin)      0.32940     0.25394     0.16746
 Rotational constants (GHZ):           6.86365     5.29128     3.48931
 Zero-point vibrational energy      81990.5 (Joules/Mol)
                                   19.59620 (Kcal/Mol)
 Warning -- explicit consideration of   7 degrees of freedom as
           vibrations may cause significant error
 Vibrational temperatures:    143.70   180.94   371.93   459.56   581.85
          (Kelvin)            770.72   854.79  1442.24  1483.38  2353.48
                             5468.21  5611.55

 Zero-point correction=                           0.031229 (Hartree/Particle)
 Thermal correction to Energy=                    0.037093
 Thermal correction to Enthalpy=                  0.038037
 Thermal correction to Gibbs Free Energy=         0.001636
 Sum of electronic and zero-point Energies=           -285.192755
 Sum of electronic and thermal Energies=              -285.186891
 Sum of electronic and thermal Enthalpies=            -285.185947
 Sum of electronic and thermal Free Energies=         -285.222348

                     E (Thermal)             CV                S
                      KCal/Mol        Cal/Mol-Kelvin    Cal/Mol-Kelvin
 Total                   23.276             17.664             76.613
 Electronic               0.000              0.000              0.000
 Translational            0.889              2.981             39.656
 Rotational               0.889              2.981             25.343
 Vibrational             21.499             11.703             11.614
 Vibration     1          0.604              1.949              3.457
 Vibration     2          0.611              1.927              3.010
 Vibration     3          0.667              1.748              1.672
 Vibration     4          0.705              1.636              1.313
 Vibration     5          0.770              1.461              0.947
 Vibration     6          0.891              1.171              0.575
 Vibration     7          0.952              1.044              0.460

 Optimization completed.
    -- Stationary point found.
 Normal termination of Gaussian 09 at Wed Oct 26 16:57:04 2016.
