 Gaussian 09, Revision C.01,
 Gaussian 09:  AM64L-G09RevC.01 23-Sep-2011

 ----------------------------------------------------------------------
 #P B3PW91/GenECP SCFCon=7 SCFCyc=250 GFInput GFOldPrint Pseudo=Read IR
 C=(RCFC,MaxPoints=30) Guess=Read Integral=(Grid=UltraFine) Pop=Regular
  IOp(1/33=0,2/11=1,3/27=8,6/7=3)
 ----------------------------------------------------------------------

 (Enter /opt/qcapps/g09/l101.exe)
 ---------
 Frequency
 ---------
 Charge =  0 Multiplicity = 1

 SCF Done:  E(RB3PW91) =  -285.213541168     A.U. after   10 cycles
 SCF Done:  E(RB3PW91) =  -285.214102284     A.U. after   10 cycles
 SCF Done:  E(RB3PW91) =  -285.214120044     A.U. after    8 cycles
 SCF Done:  E(RB3PW91) =  -285.214738763     A.U. after   10 cycles
 SCF Done:  E(RB3PW91) =  -285.214775190     A.U. after    8 cycles
 SCF Done:  E(RB3PW91) =  -285.215387663     A.U. after   10 cycles
 SCF Done:  E(RB3PW91) =  -285.215417034     A.U. after    8 cycles
 SCF Done:  E(RB3PW91) =  -285.216005702     A.U. after    9 cycles
 SCF Done:  E(RB3PW91) =  -285.216024715     A.U. after    8 cycles
 SCF Done:  E(RB3PW91) =  -285.216584217     A.U. after    9 cycles
 SCF Done:  E(RB3PW91) =  -285.253712354     A.U. after    8 cycles
 SCF Done:  E(RB3PW91) =  -285.255073729     A.U. after    9 cycles
 SCF Done:  E(RB3PW91) =  -285.256386594     A.U. after    9 cycles
 SCF Done:  E(RB3PW91) =  -285.257638937     A.U. after    9 cycles
 SCF Done:  E(RB3PW91) =  -285.258837876     A.U. after    9 cycles
 SCF Done:  E(RB3PW91) =  -285.259980348     A.U. after    9 cycles
 SCF Done:  E(RB3PW91) =  -285.261072985     A.U. after    9 cycles
 SCF Done:  E(RB3PW91) =  -285.262112823     A.U. after    9 cycles
 SCF Done:  E(RB3PW91) =  -285.263108874     A.U. after    9 cycles
 SCF Done:  E(RB3PW91) =  -285.264057504     A.U. after    9 cycles

                          Input orientation:
 ---------------------------------------------------------------------
 Center     Atomic      Atomic             Coordinates (Angstroms)
 Number     Number       Type             X           Y           Z
 ---------------------------------------------------------------------
      1         22           0        0.195888    0.064130   -0.304444
      2          8           0        0.134953   -1.443539    0.697879
      3          8           0        1.119080    1.201063    0.382517
      4          8           0       -1.651868    0.111556   -0.226338
      5          1           0       -2.212507    0.759672    0.210569
      6          1           0       -0.787743   -1.737811    0.717733
 ---------------------------------------------------------------------

 Alpha  occ. eigenvalues --  -19.13847 -19.12853 -19.11525  -2.49019  -1.53381
 Alpha  occ. eigenvalues --   -1.52635  -1.52387  -0.97421  -0.96013  -0.86487
 Alpha  occ. eigenvalues --   -0.49511  -0.46360  -0.36747  -0.35456  -0.34100
 Alpha  occ. eigenvalues --   -0.32193  -0.32134  -0.31009  -0.29620
 Alpha virt. eigenvalues --   -0.09735  -0.06556  -0.05325  -0.01181   0.00102
 Alpha virt. eigenvalues --    0.01633   0.02316   0.02512   0.03284   0.04790
 Alpha virt. eigenvalues --    0.10669   0.10919   0.11820   0.13039   0.13824

 Mulliken atomic charges:
              1
     1  Ti   1.085226
     2  O   -0.636000
     3  O   -0.467847
     4  O   -0.692437
     5  H    0.345733
     6  H    0.365326
 Sum of Mulliken atomic charges =   0.00000

 Dipole moment (field-independent basis, Debye):
    X=             -1.7515    Y=             -0.6080    Z=             -3.5716  Tot=              4.0241
 Quadrupole moment (field-independent basis, Debye-Ang):
   XX=            -32.6106   YY=            -35.4707   ZZ=            -29.7302
   XY=             -3.1716   XZ=             -6.3308   YZ=              0.3109

  Exact polarizability:   0.000   0.000   0.000   0.000   0.000   0.000
 Approx polarizability:  70.726  21.031  71.685   7.228   1.827  45.216

 Normal termination of Gaussian 09 at Wed Oct 26 17:38:13 2016.
